TITLE="Layer_4"
VARIABLES="Time [s]"
"Flow Rate IN [m^3/s]"
"Flow Rate OUT [m^3/s]"
"Net Flow Rate [m^3/s]"
"Net Cumulated Volume [m^3]"
ZONE T="Flow Budget Zone#4"
 0.3000000000000000E+03  0.9939168890833164E-07  0.6005414368296844E-07  0.3933754522536320E-07  0.5900631783804479E-05
 0.6000000000000000E+03  0.1529394557139136E-06  0.4840957444919559E-07  0.1045298812647180E-06  0.2748074575731666E-04
 0.9000000000000000E+03  0.1872765890182802E-06  0.2980770572288461E-07  0.1574688832953956E-06  0.6678056044133370E-04
 0.1200000000000000E+04  0.2046507587367198E-06  0.1408600309088298E-07  0.1905647556458369E-06  0.1189856062825186E-03
 0.1500000000000000E+04  0.2123411020433163E-06  0.1025943272611046E-08  0.2113151587707052E-06  0.1792675934449999E-03
 0.1800000000000000E+04  0.2268078400870417E-06  0.0000000000000000E+00  0.2268078400870417E-06  0.2449860432736619E-03
 0.2100000000000000E+04  0.2409596400147892E-06  0.0000000000000000E+00  0.2409596400147892E-06  0.3151511652889366E-03
 0.2400000000000000E+04  0.2568773846305848E-06  0.0000000000000000E+00  0.2568773846305848E-06  0.3898267189857427E-03
 0.2700000000000000E+04  0.2759957602824366E-06  0.0000000000000000E+00  0.2759957602824366E-06  0.4697576907226960E-03
 0.3000000000000000E+04  0.2983943432371039E-06  0.0000000000000000E+00  0.2983943432371039E-06  0.5559162062506271E-03
 0.3300000000000000E+04  0.3239955398939880E-06  0.0000000000000000E+00  0.3239955398939880E-06  0.6492746887202909E-03
 0.3600000000000000E+04  0.3523745880666191E-06  0.0000000000000000E+00  0.3523745880666191E-06  0.7507302079143819E-03
 0.3900000000000000E+04  0.3828961091896705E-06  0.0000000000000000E+00  0.3828961091896705E-06  0.8610208125028253E-03
 0.4200000000000000E+04  0.4148702735071890E-06  0.0000000000000000E+00  0.4148702735071890E-06  0.9806857699073543E-03
 0.4500000000000000E+04  0.4476643926774345E-06  0.0000000000000000E+00  0.4476643926774345E-06  0.1110065969835048E-02
 0.4800000000000000E+04  0.4806848921371534E-06  0.0000000000000000E+00  0.4806848921371534E-06  0.1249318362557236E-02
 0.5100000000000000E+04  0.5135508156058814E-06  0.0000000000000000E+00  0.5135508156058814E-06  0.1398453718718691E-02
 0.5400000000000000E+04  0.5460109951889355E-06  0.0000000000000000E+00  0.5460109951889355E-06  0.1557387990337914E-02
 0.5700000000000000E+04  0.5777846606960828E-06  0.0000000000000000E+00  0.5777846606960828E-06  0.1725957338720666E-02
 0.6000000000000000E+04  0.6085234378125896E-06  0.0000000000000000E+00  0.6085234378125896E-06  0.1903903553496967E-02
 0.6300000000000000E+04  0.6378607858988864E-06  0.0000000000000000E+00  0.6378607858988864E-06  0.2090861187053689E-02
 0.6600000000000000E+04  0.6654694562987129E-06  0.0000000000000000E+00  0.6654694562987129E-06  0.2286360723383329E-02
 0.6900000000000000E+04  0.6910941536198480E-06  0.0000000000000000E+00  0.6910941536198480E-06  0.2489845264871113E-02
 0.7200000000000000E+04  0.7145601207842611E-06  0.0000000000000000E+00  0.7145601207842611E-06  0.2700693406031729E-02
 0.7500000000000000E+04  0.7357674649668072E-06  0.0000000000000000E+00  0.7357674649668072E-06  0.2918242543894389E-02
 0.7800000000000000E+04  0.7546794245059680E-06  0.0000000000000000E+00  0.7546794245059680E-06  0.3141809577315306E-02
 0.8100000000000000E+04  0.7713093405204536E-06  0.0000000000000000E+00  0.7713093405204536E-06  0.3370707892069269E-02
 0.8400000000000000E+04  0.7857085736953239E-06  0.0000000000000000E+00  0.7857085736953239E-06  0.3604260579201636E-02
 0.8700000000000000E+04  0.7979561865610271E-06  0.0000000000000000E+00  0.7979561865610271E-06  0.3841810293240088E-02
 0.9000000000000000E+04  0.8081505243962749E-06  0.0000000000000000E+00  0.8081505243962749E-06  0.4082726299883684E-02
 0.9300000000000000E+04  0.8164025364364077E-06  0.0000000000000000E+00  0.8164025364364077E-06  0.4326409259008586E-02
 0.9600000000000000E+04  0.8228305824804788E-06  0.0000000000000000E+00  0.8228305824804788E-06  0.4572294226846119E-02
 0.9900000000000000E+04  0.8275564610501281E-06  0.0000000000000000E+00  0.8275564610501281E-06  0.4819852283375710E-02
 0.1020000000000000E+05  0.8307024200252791E-06  0.0000000000000000E+00  0.8307024200252791E-06  0.5068591115537022E-02
 0.1050000000000000E+05  0.8323889472898027E-06  0.0000000000000000E+00  0.8323889472898027E-06  0.5318054820634284E-02
 0.1080000000000000E+05  0.8327331741615545E-06  0.0000000000000000E+00  0.8327331741615545E-06  0.5567823138851988E-02
 0.1110000000000000E+05  0.8318477571219818E-06  0.0000000000000000E+00  0.8318477571219818E-06  0.5817510278544518E-02
 0.1140000000000000E+05  0.8298401298195284E-06  0.0000000000000000E+00  0.8298401298195284E-06  0.6066763461585745E-02
 0.1170000000000000E+05  0.8268120398479567E-06  0.0000000000000000E+00  0.8268120398479567E-06  0.6315261287035867E-02
 0.1200000000000000E+05  0.8228593028821325E-06  0.0000000000000000E+00  0.8228593028821325E-06  0.6562711988445381E-02
 0.1230000000000000E+05  0.8180717202733068E-06  0.0000000000000000E+00  0.8180717202733068E-06  0.6808851641918696E-02
 0.1260000000000000E+05  0.8125331190823052E-06  0.0000000000000000E+00  0.8125331190823052E-06  0.7053442367822038E-02
 0.1290000000000000E+05  0.8063214808055641E-06  0.0000000000000000E+00  0.8063214808055641E-06  0.7296270557805219E-02
 0.1320000000000000E+05  0.7995091337661427E-06  0.0000000000000000E+00  0.7995091337661427E-06  0.7537145149990975E-02
 0.1350000000000000E+05  0.7921635275458223E-06  0.0000000000000000E+00  0.7921635275458223E-06  0.7775896049187769E-02
 0.1380000000000000E+05  0.7843442873120500E-06  0.0000000000000000E+00  0.7843442873120500E-06  0.8012372221416450E-02
 0.1410000000000000E+05  0.7761116866651592E-06  0.0000000000000000E+00  0.7761116866651592E-06  0.8246440617513031E-02
 0.1440000000000000E+05  0.7675161366944611E-06  0.0000000000000000E+00  0.7675161366944611E-06  0.8477984791016973E-02
 0.1470000000000000E+05  0.7586066436622471E-06  0.0000000000000000E+00  0.7586066436622471E-06  0.8706903208070479E-02
 0.1500000000000000E+05  0.7494281102197488E-06  0.0000000000000000E+00  0.7494281102197488E-06  0.8933108421152780E-02
 0.1530000000000000E+05  0.7400217960196702E-06  0.0000000000000000E+00  0.7400217960196702E-06  0.9156525907088693E-02
 0.1560000000000000E+05  0.7304255537342612E-06  0.0000000000000000E+00  0.7304255537342612E-06  0.9377093009551783E-02
 0.1590000000000000E+05  0.7206739892425700E-06  0.0000000000000000E+00  0.7206739892425700E-06  0.9594757940998308E-02
 0.1620000000000000E+05  0.7107986110587648E-06  0.0000000000000000E+00  0.7107986110587648E-06  0.9809478831043508E-02
 0.1650000000000000E+05  0.7008279922956747E-06  0.0000000000000000E+00  0.7008279922956747E-06  0.1002122282154667E-01
 0.1680000000000000E+05  0.6907879504047072E-06  0.0000000000000000E+00  0.6907879504047072E-06  0.1022996521295173E-01
 0.1710000000000000E+05  0.6807017400017466E-06  0.0000000000000000E+00  0.6807017400017466E-06  0.1043568866651270E-01
 0.1740000000000000E+05  0.6705902526512453E-06  0.0000000000000000E+00  0.6705902526512453E-06  0.1063838246541065E-01
 0.1770000000000000E+05  0.6604722157938219E-06  0.0000000000000000E+00  0.6604722157938219E-06  0.1083804183567741E-01
 0.1800000000000000E+05  0.6503643854262672E-06  0.0000000000000000E+00  0.6503643854262672E-06  0.1103466732586042E-01
 0.1830000000000000E+05  0.6402817286198242E-06  0.0000000000000000E+00  0.6402817286198242E-06  0.1122826424296733E-01
 0.1860000000000000E+05  0.6302375931097770E-06  0.0000000000000000E+00  0.6302375931097770E-06  0.1141884214122677E-01
 0.1890000000000000E+05  0.6202438634613026E-06  0.0000000000000000E+00  0.6202438634613026E-06  0.1160641435971244E-01
 0.1920000000000000E+05  0.6103111030144394E-06  0.0000000000000000E+00  0.6103111030144394E-06  0.1179099760468380E-01
 0.1950000000000000E+05  0.6004486828035450E-06  0.0000000000000000E+00  0.6004486828035450E-06  0.1197261157255649E-01
 0.1980000000000000E+05  0.5906648975248616E-06  0.0000000000000000E+00  0.5906648975248616E-06  0.1215127860960576E-01
 0.2010000000000000E+05  0.5809670701317088E-06  0.0000000000000000E+00  0.5809670701317088E-06  0.1232702340475424E-01
 0.2040000000000000E+05  0.5713616457031761E-06  0.0000000000000000E+00  0.5713616457031761E-06  0.1249987271212947E-01
 0.2070000000000000E+05  0.5618542758236480E-06  0.0000000000000000E+00  0.5618542758236480E-06  0.1266985510035850E-01
 0.2100000000000000E+05  0.5524498944625087E-06  0.0000000000000000E+00  0.5524498944625087E-06  0.1283700072590142E-01
 0.2130000000000000E+05  0.5431527860526471E-06  0.0000000000000000E+00  0.5431527860526471E-06  0.1300134112797869E-01
 0.2160000000000000E+05  0.5339666469298082E-06  0.0000000000000000E+00  0.5339666469298082E-06  0.1316290904292606E-01
 0.2190000000000000E+05  0.5248946405689943E-06  0.0000000000000000E+00  0.5248946405689943E-06  0.1332173823605088E-01
 0.2220000000000000E+05  0.5159394474979750E-06  0.0000000000000000E+00  0.5159394474979750E-06  0.1347786334926093E-01
 0.2250000000000000E+05  0.5071033103790372E-06  0.0000000000000000E+00  0.5071033103790372E-06  0.1363131976294248E-01
 0.2280000000000000E+05  0.4983880747150439E-06  0.0000000000000000E+00  0.4983880747150439E-06  0.1378214347070659E-01
 0.2310000000000000E+05  0.4897952257756119E-06  0.0000000000000000E+00  0.4897952257756119E-06  0.1393037096578019E-01
 0.2340000000000000E+05  0.4813259222047903E-06  0.0000000000000000E+00  0.4813259222047903E-06  0.1407603913797725E-01
 0.2370000000000000E+05  0.4729810263020282E-06  0.0000000000000000E+00  0.4729810263020282E-06  0.1421918518025328E-01
 0.2400000000000000E+05  0.4647611317875483E-06  0.0000000000000000E+00  0.4647611317875483E-06  0.1435984650396671E-01
 0.2430000000000000E+05  0.4566665889536013E-06  0.0000000000000000E+00  0.4566665889536013E-06  0.1449806066207789E-01
 0.2460000000000000E+05  0.4486975276280847E-06  0.0000000000000000E+00  0.4486975276280847E-06  0.1463386527956514E-01
 0.2490000000000000E+05  0.4408538780897652E-06  0.0000000000000000E+00  0.4408538780897652E-06  0.1476729799042282E-01
 0.2520000000000000E+05  0.4331353902316465E-06  0.0000000000000000E+00  0.4331353902316465E-06  0.1489839638067103E-01
 0.2550000000000000E+05  0.4255416509910782E-06  0.0000000000000000E+00  0.4255416509910782E-06  0.1502719793685444E-01
 0.2580000000000000E+05  0.4180721004421752E-06  0.0000000000000000E+00  0.4180721004421752E-06  0.1515373999956942E-01
 0.2610000000000000E+05  0.4107260462215753E-06  0.0000000000000000E+00  0.4107260462215753E-06  0.1527805972156899E-01
 0.2640000000000000E+05  0.4035026771692608E-06  0.0000000000000000E+00  0.4035026771692608E-06  0.1540019403007761E-01
 0.2670000000000000E+05  0.3964010753622268E-06  0.0000000000000000E+00  0.3964010753622268E-06  0.1552017959295733E-01
 0.2700000000000000E+05  0.3894202274974250E-06  0.0000000000000000E+00  0.3894202274974250E-06  0.1563805278838628E-01
 0.2730000000000000E+05  0.3825590351602291E-06  0.0000000000000000E+00  0.3825590351602291E-06  0.1575384967778493E-01
 0.2760000000000000E+05  0.3758163243558862E-06  0.0000000000000000E+00  0.3758163243558862E-06  0.1586760598171235E-01
 0.2790000000000000E+05  0.3691908539735174E-06  0.0000000000000000E+00  0.3691908539735174E-06  0.1597935705846176E-01
 0.2820000000000000E+05  0.3626813239756931E-06  0.0000000000000000E+00  0.3626813239756931E-06  0.1608913788515414E-01
 0.2850000000000000E+05  0.3562863825460493E-06  0.0000000000000000E+00  0.3562863825460493E-06  0.1619698304113240E-01
 0.2880000000000000E+05  0.3500046328239724E-06  0.0000000000000000E+00  0.3500046328239724E-06  0.1630292669343790E-01
 0.2910000000000000E+05  0.3438346391096230E-06  0.0000000000000000E+00  0.3438346391096230E-06  0.1640700258422794E-01
 0.2940000000000000E+05  0.3377749323405128E-06  0.0000000000000000E+00  0.3377749323405128E-06  0.1650924401994546E-01
 0.2970000000000000E+05  0.3318240153649013E-06  0.0000000000000000E+00  0.3318240153649013E-06  0.1660968386210127E-01
 0.3000000000000000E+05  0.3259803676283269E-06  0.0000000000000000E+00  0.3259803676283269E-06  0.1670835451955026E-01
 0.3030000000000000E+05  0.3202424495364235E-06  0.0000000000000000E+00  0.3202424495364235E-06  0.1680528794212497E-01
 0.3060000000000000E+05  0.3146087063876196E-06  0.0000000000000000E+00  0.3146087063876196E-06  0.1690051561551357E-01
 0.3090000000000000E+05  0.3090775720069098E-06  0.0000000000000000E+00  0.3090775720069098E-06  0.1699406855727275E-01
 0.3120000000000000E+05  0.3036474720280734E-06  0.0000000000000000E+00  0.3036474720280734E-06  0.1708597731387800E-01
 0.3150000000000000E+05  0.2983168270487708E-06  0.0000000000000000E+00  0.2983168270487708E-06  0.1717627195873953E-01
 0.3180000000000000E+05  0.2930840551622094E-06  0.0000000000000000E+00  0.2930840551622094E-06  0.1726498209107117E-01
 0.3210000000000000E+05  0.2879475747556595E-06  0.0000000000000000E+00  0.2879475747556595E-06  0.1735213683555885E-01
 0.3240000000000000E+05  0.2829058065900215E-06  0.0000000000000000E+00  0.2829058065900215E-06  0.1743776484276070E-01
 0.3270000000000000E+05  0.2779571759440800E-06  0.0000000000000000E+00  0.2779571759440800E-06  0.1752189429014082E-01
 0.3300000000000000E+05  0.2731001146071991E-06  0.0000000000000000E+00  0.2731001146071991E-06  0.1760455288372351E-01
 0.3330000000000000E+05  0.2683330624033185E-06  0.0000000000000000E+00  0.2683330624033185E-06  0.1768576786027509E-01
 0.3360000000000000E+05  0.2636544689669026E-06  0.0000000000000000E+00  0.2636544689669026E-06  0.1776556598998062E-01
 0.3390000000000000E+05  0.2590627949582104E-06  0.0000000000000000E+00  0.2590627949582104E-06  0.1784397357956939E-01
 0.3420000000000000E+05  0.2545565133982725E-06  0.0000000000000000E+00  0.2545565133982725E-06  0.1792101647582286E-01
 0.3450000000000000E+05  0.2501341108237707E-06  0.0000000000000000E+00  0.2501341108237707E-06  0.1799672006945617E-01
 0.3480000000000000E+05  0.2457940882967952E-06  0.0000000000000000E+00  0.2457940882967952E-06  0.1807110929932425E-01
 0.3510000000000000E+05  0.2415349621884933E-06  0.0000000000000000E+00  0.2415349621884933E-06  0.1814420865689705E-01
 0.3540000000000000E+05  0.2373552652257032E-06  0.0000000000000000E+00  0.2373552652257032E-06  0.1821604219100918E-01
 0.3570000000000000E+05  0.2332535469176694E-06  0.0000000000000000E+00  0.2332535469176694E-06  0.1828663351283068E-01
 0.3600000000000000E+05  0.2292283743819196E-06  0.0000000000000000E+00  0.2292283743819196E-06  0.1835600580102562E-01
 0.3630000000000000E+05  0.2252783327883682E-06  0.0000000000000000E+00  0.2252783327883682E-06  0.1842418180710116E-01
 0.3660000000000000E+05  0.2214020258950878E-06  0.0000000000000000E+00  0.2214020258950878E-06  0.1849118386090368E-01
 0.3690000000000000E+05  0.2175980763558433E-06  0.0000000000000000E+00  0.2175980763558433E-06  0.1855703387624132E-01
 0.3720000000000000E+05  0.2138651261315735E-06  0.0000000000000000E+00  0.2138651261315735E-06  0.1862175335661443E-01
 0.3750000000000000E+05  0.2102018367703735E-06  0.0000000000000000E+00  0.2102018367703735E-06  0.1868536340104972E-01
 0.3780000000000000E+05  0.2066068895658279E-06  0.0000000000000000E+00  0.2066068895658279E-06  0.1874788471000016E-01
 0.3810000000000000E+05  0.2030789858634342E-06  0.0000000000000000E+00  0.2030789858634342E-06  0.1880933759131454E-01
 0.3840000000000000E+05  0.1996168470435260E-06  0.0000000000000000E+00  0.1996168470435260E-06  0.1886974196625059E-01
 0.3870000000000000E+05  0.1962192147778367E-06  0.0000000000000000E+00  0.1962192147778367E-06  0.1892911737552379E-01
 0.3900000000000000E+05  0.1928848508797701E-06  0.0000000000000000E+00  0.1928848508797701E-06  0.1898748298537244E-01
 0.3930000000000000E+05  0.1896125375586198E-06  0.0000000000000000E+00  0.1896125375586198E-06  0.1904485759363820E-01
 0.3960000000000000E+05  0.1864010773190087E-06  0.0000000000000000E+00  0.1864010773190087E-06  0.1910125963586984E-01
 0.3990000000000000E+05  0.1832492927558260E-06  0.0000000000000000E+00  0.1832492927558260E-06  0.1915670719138107E-01
 0.4020000000000000E+05  0.1801560268350084E-06  0.0000000000000000E+00  0.1801560268350084E-06  0.1921121798931969E-01
 0.4050000000000000E+05  0.1771201424581245E-06  0.0000000000000000E+00  0.1771201424581245E-06  0.1926480941471366E-01
 0.4080000000000000E+05  0.1741405225998382E-06  0.0000000000000000E+00  0.1741405225998382E-06  0.1931749851447236E-01
 0.4110000000000000E+05  0.1712160700394465E-06  0.0000000000000000E+00  0.1712160700394465E-06  0.1936930200336825E-01
 0.4140000000000000E+05  0.1683457073280419E-06  0.0000000000000000E+00  0.1683457073280419E-06  0.1942023626997337E-01
 0.4170000000000000E+05  0.1655283765021338E-06  0.0000000000000000E+00  0.1655283765021338E-06  0.1947031738254790E-01
 0.4200000000000000E+05  0.1627630390052336E-06  0.0000000000000000E+00  0.1627630390052336E-06  0.1951956109487400E-01
 0.4230000000000000E+05  0.1600486754461998E-06  0.0000000000000000E+00  0.1600486754461998E-06  0.1956798285204172E-01
 0.4260000000000000E+05  0.1573842854314845E-06  0.0000000000000000E+00  0.1573842854314845E-06  0.1961559779617337E-01
 0.4290000000000000E+05  0.1547688873215541E-06  0.0000000000000000E+00  0.1547688873215541E-06  0.1966242077208633E-01
 0.4320000000000000E+05  0.1522015180707931E-06  0.0000000000000000E+00  0.1522015180707931E-06  0.1970846633289518E-01
