TITLE="Layer_3"
VARIABLES="Time [s]"
"Flow Rate IN [m^3/s]"
"Flow Rate OUT [m^3/s]"
"Net Flow Rate [m^3/s]"
"Net Cumulated Volume [m^3]"
ZONE T="Flow Budget Zone#3"
 0.3000000000000000E+03  0.0000000000000000E+00  0.8914460895702739E-04 -0.8914460895702739E-04 -0.1337169134355411E-01
 0.6000000000000000E+03  0.1589530903613919E-05  0.5243353058401663E-04 -0.5084399968040272E-04 -0.3436998263916862E-01
 0.9000000000000000E+03  0.0000000000000000E+00  0.3720505119361398E-04 -0.3720505119361398E-04 -0.4757734027027113E-01
 0.1200000000000000E+04  0.2156015059462857E-06  0.2828231293140608E-04 -0.2806671142545979E-04 -0.5736810466313219E-01
 0.1500000000000000E+04  0.0000000000000000E+00  0.2247585443113876E-04 -0.2247585443113876E-04 -0.6494948954162197E-01
 0.1800000000000000E+04  0.0000000000000000E+00  0.1770313796770603E-04 -0.1770313796770603E-04 -0.7097633840144868E-01
 0.2100000000000000E+04  0.0000000000000000E+00  0.1363685353706771E-04 -0.1363685353706771E-04 -0.7567733712716473E-01
 0.2400000000000000E+04  0.0000000000000000E+00  0.1068913336479404E-04 -0.1068913336479404E-04 -0.7932623516244400E-01
 0.2700000000000000E+04  0.0000000000000000E+00  0.7933719279317172E-05 -0.7933719279317172E-05 -0.8211966305906068E-01
 0.3000000000000000E+04  0.1090947556805648E-06  0.5487487023248482E-05 -0.5378392267567917E-05 -0.8411647979109345E-01
 0.3300000000000000E+04  0.0000000000000000E+00  0.3753006537766533E-05 -0.3753006537766533E-05 -0.8548618961189361E-01
 0.3600000000000000E+04  0.0000000000000000E+00  0.2066369683901875E-05 -0.2066369683901875E-05 -0.8635909604514387E-01
 0.3900000000000000E+04  0.0000000000000000E+00  0.9781379684050957E-06 -0.9781379684050957E-06 -0.8681577219298992E-01
 0.4200000000000000E+04  0.0000000000000000E+00  0.6673753668841537E-07 -0.6673753668841537E-07 -0.8697250351875394E-01
 0.4500000000000000E+04  0.0000000000000000E+00  0.0000000000000000E+00  0.0000000000000000E+00 -0.8698251414925720E-01
 0.4800000000000000E+04  0.0000000000000000E+00  0.0000000000000000E+00  0.0000000000000000E+00 -0.8698251414925720E-01
 0.5100000000000000E+04  0.0000000000000000E+00  0.0000000000000000E+00  0.0000000000000000E+00 -0.8698251414925720E-01
 0.5400000000000000E+04  0.0000000000000000E+00  0.0000000000000000E+00  0.0000000000000000E+00 -0.8698251414925720E-01
 0.5700000000000000E+04  0.0000000000000000E+00  0.0000000000000000E+00  0.0000000000000000E+00 -0.8698251414925720E-01
 0.6000000000000000E+04  0.0000000000000000E+00  0.0000000000000000E+00  0.0000000000000000E+00 -0.8698251414925720E-01
 0.6300000000000000E+04  0.0000000000000000E+00  0.0000000000000000E+00  0.0000000000000000E+00 -0.8698251414925720E-01
 0.6600000000000000E+04  0.0000000000000000E+00  0.0000000000000000E+00  0.0000000000000000E+00 -0.8698251414925720E-01
 0.6900000000000000E+04  0.0000000000000000E+00  0.0000000000000000E+00  0.0000000000000000E+00 -0.8698251414925720E-01
 0.7200000000000000E+04  0.0000000000000000E+00  0.0000000000000000E+00  0.0000000000000000E+00 -0.8698251414925720E-01
 0.7500000000000000E+04  0.0000000000000000E+00  0.0000000000000000E+00  0.0000000000000000E+00 -0.8698251414925720E-01
 0.7800000000000000E+04  0.0000000000000000E+00  0.0000000000000000E+00  0.0000000000000000E+00 -0.8698251414925720E-01
 0.8100000000000000E+04  0.0000000000000000E+00  0.0000000000000000E+00  0.0000000000000000E+00 -0.8698251414925720E-01
 0.8400000000000000E+04  0.0000000000000000E+00  0.0000000000000000E+00  0.0000000000000000E+00 -0.8698251414925720E-01
 0.8700000000000000E+04  0.0000000000000000E+00  0.0000000000000000E+00  0.0000000000000000E+00 -0.8698251414925720E-01
 0.9000000000000000E+04  0.0000000000000000E+00  0.0000000000000000E+00  0.0000000000000000E+00 -0.8698251414925720E-01
 0.9300000000000000E+04  0.0000000000000000E+00  0.0000000000000000E+00  0.0000000000000000E+00 -0.8698251414925720E-01
 0.9600000000000000E+04  0.0000000000000000E+00  0.0000000000000000E+00  0.0000000000000000E+00 -0.8698251414925720E-01
 0.9900000000000000E+04  0.0000000000000000E+00  0.0000000000000000E+00  0.0000000000000000E+00 -0.8698251414925720E-01
 0.1020000000000000E+05  0.0000000000000000E+00  0.0000000000000000E+00  0.0000000000000000E+00 -0.8698251414925720E-01
 0.1050000000000000E+05  0.0000000000000000E+00  0.0000000000000000E+00  0.0000000000000000E+00 -0.8698251414925720E-01
 0.1080000000000000E+05  0.0000000000000000E+00  0.0000000000000000E+00  0.0000000000000000E+00 -0.8698251414925720E-01
 0.1110000000000000E+05  0.0000000000000000E+00  0.0000000000000000E+00  0.0000000000000000E+00 -0.8698251414925720E-01
 0.1140000000000000E+05  0.0000000000000000E+00  0.0000000000000000E+00  0.0000000000000000E+00 -0.8698251414925720E-01
 0.1170000000000000E+05  0.0000000000000000E+00  0.0000000000000000E+00  0.0000000000000000E+00 -0.8698251414925720E-01
 0.1200000000000000E+05  0.0000000000000000E+00  0.0000000000000000E+00  0.0000000000000000E+00 -0.8698251414925720E-01
 0.1230000000000000E+05  0.0000000000000000E+00  0.0000000000000000E+00  0.0000000000000000E+00 -0.8698251414925720E-01
 0.1260000000000000E+05  0.0000000000000000E+00  0.0000000000000000E+00  0.0000000000000000E+00 -0.8698251414925720E-01
 0.1290000000000000E+05  0.0000000000000000E+00  0.0000000000000000E+00  0.0000000000000000E+00 -0.8698251414925720E-01
 0.1320000000000000E+05  0.0000000000000000E+00  0.0000000000000000E+00  0.0000000000000000E+00 -0.8698251414925720E-01
 0.1350000000000000E+05  0.0000000000000000E+00  0.0000000000000000E+00  0.0000000000000000E+00 -0.8698251414925720E-01
 0.1380000000000000E+05  0.0000000000000000E+00  0.0000000000000000E+00  0.0000000000000000E+00 -0.8698251414925720E-01
 0.1410000000000000E+05  0.0000000000000000E+00  0.0000000000000000E+00  0.0000000000000000E+00 -0.8698251414925720E-01
 0.1440000000000000E+05  0.0000000000000000E+00  0.0000000000000000E+00  0.0000000000000000E+00 -0.8698251414925720E-01
 0.1470000000000000E+05  0.0000000000000000E+00  0.0000000000000000E+00  0.0000000000000000E+00 -0.8698251414925720E-01
 0.1500000000000000E+05  0.0000000000000000E+00  0.0000000000000000E+00  0.0000000000000000E+00 -0.8698251414925720E-01
 0.1530000000000000E+05  0.0000000000000000E+00  0.0000000000000000E+00  0.0000000000000000E+00 -0.8698251414925720E-01
 0.1560000000000000E+05  0.0000000000000000E+00  0.0000000000000000E+00  0.0000000000000000E+00 -0.8698251414925720E-01
 0.1590000000000000E+05  0.0000000000000000E+00  0.0000000000000000E+00  0.0000000000000000E+00 -0.8698251414925720E-01
 0.1620000000000000E+05  0.0000000000000000E+00  0.0000000000000000E+00  0.0000000000000000E+00 -0.8698251414925720E-01
 0.1650000000000000E+05  0.0000000000000000E+00  0.0000000000000000E+00  0.0000000000000000E+00 -0.8698251414925720E-01
 0.1680000000000000E+05  0.0000000000000000E+00  0.0000000000000000E+00  0.0000000000000000E+00 -0.8698251414925720E-01
 0.1710000000000000E+05  0.0000000000000000E+00  0.0000000000000000E+00  0.0000000000000000E+00 -0.8698251414925720E-01
 0.1740000000000000E+05  0.0000000000000000E+00  0.0000000000000000E+00  0.0000000000000000E+00 -0.8698251414925720E-01
 0.1770000000000000E+05  0.0000000000000000E+00  0.0000000000000000E+00  0.0000000000000000E+00 -0.8698251414925720E-01
 0.1800000000000000E+05  0.0000000000000000E+00  0.0000000000000000E+00  0.0000000000000000E+00 -0.8698251414925720E-01
 0.1830000000000000E+05  0.0000000000000000E+00  0.0000000000000000E+00  0.0000000000000000E+00 -0.8698251414925720E-01
 0.1860000000000000E+05  0.0000000000000000E+00  0.0000000000000000E+00  0.0000000000000000E+00 -0.8698251414925720E-01
 0.1890000000000000E+05  0.0000000000000000E+00  0.0000000000000000E+00  0.0000000000000000E+00 -0.8698251414925720E-01
 0.1920000000000000E+05  0.0000000000000000E+00  0.0000000000000000E+00  0.0000000000000000E+00 -0.8698251414925720E-01
 0.1950000000000000E+05  0.0000000000000000E+00  0.0000000000000000E+00  0.0000000000000000E+00 -0.8698251414925720E-01
 0.1980000000000000E+05  0.0000000000000000E+00  0.0000000000000000E+00  0.0000000000000000E+00 -0.8698251414925720E-01
 0.2010000000000000E+05  0.0000000000000000E+00  0.0000000000000000E+00  0.0000000000000000E+00 -0.8698251414925720E-01
 0.2040000000000000E+05  0.0000000000000000E+00  0.0000000000000000E+00  0.0000000000000000E+00 -0.8698251414925720E-01
 0.2070000000000000E+05  0.0000000000000000E+00  0.0000000000000000E+00  0.0000000000000000E+00 -0.8698251414925720E-01
 0.2100000000000000E+05  0.0000000000000000E+00  0.0000000000000000E+00  0.0000000000000000E+00 -0.8698251414925720E-01
 0.2130000000000000E+05  0.0000000000000000E+00  0.0000000000000000E+00  0.0000000000000000E+00 -0.8698251414925720E-01
 0.2160000000000000E+05  0.0000000000000000E+00  0.0000000000000000E+00  0.0000000000000000E+00 -0.8698251414925720E-01
 0.2190000000000000E+05  0.0000000000000000E+00  0.0000000000000000E+00  0.0000000000000000E+00 -0.8698251414925720E-01
 0.2220000000000000E+05  0.0000000000000000E+00  0.0000000000000000E+00  0.0000000000000000E+00 -0.8698251414925720E-01
 0.2250000000000000E+05  0.0000000000000000E+00  0.0000000000000000E+00  0.0000000000000000E+00 -0.8698251414925720E-01
 0.2280000000000000E+05  0.0000000000000000E+00  0.0000000000000000E+00  0.0000000000000000E+00 -0.8698251414925720E-01
 0.2310000000000000E+05  0.0000000000000000E+00  0.0000000000000000E+00  0.0000000000000000E+00 -0.8698251414925720E-01
 0.2340000000000000E+05  0.0000000000000000E+00  0.0000000000000000E+00  0.0000000000000000E+00 -0.8698251414925720E-01
 0.2370000000000000E+05  0.0000000000000000E+00  0.0000000000000000E+00  0.0000000000000000E+00 -0.8698251414925720E-01
 0.2400000000000000E+05  0.0000000000000000E+00  0.0000000000000000E+00  0.0000000000000000E+00 -0.8698251414925720E-01
 0.2430000000000000E+05  0.0000000000000000E+00  0.0000000000000000E+00  0.0000000000000000E+00 -0.8698251414925720E-01
 0.2460000000000000E+05  0.0000000000000000E+00  0.0000000000000000E+00  0.0000000000000000E+00 -0.8698251414925720E-01
 0.2490000000000000E+05  0.0000000000000000E+00  0.0000000000000000E+00  0.0000000000000000E+00 -0.8698251414925720E-01
 0.2520000000000000E+05  0.0000000000000000E+00  0.0000000000000000E+00  0.0000000000000000E+00 -0.8698251414925720E-01
 0.2550000000000000E+05  0.0000000000000000E+00  0.0000000000000000E+00  0.0000000000000000E+00 -0.8698251414925720E-01
 0.2580000000000000E+05  0.0000000000000000E+00  0.0000000000000000E+00  0.0000000000000000E+00 -0.8698251414925720E-01
 0.2610000000000000E+05  0.0000000000000000E+00  0.0000000000000000E+00  0.0000000000000000E+00 -0.8698251414925720E-01
 0.2640000000000000E+05  0.0000000000000000E+00  0.0000000000000000E+00  0.0000000000000000E+00 -0.8698251414925720E-01
 0.2670000000000000E+05  0.0000000000000000E+00  0.0000000000000000E+00  0.0000000000000000E+00 -0.8698251414925720E-01
 0.2700000000000000E+05  0.0000000000000000E+00  0.0000000000000000E+00  0.0000000000000000E+00 -0.8698251414925720E-01
 0.2730000000000000E+05  0.0000000000000000E+00  0.0000000000000000E+00  0.0000000000000000E+00 -0.8698251414925720E-01
 0.2760000000000000E+05  0.0000000000000000E+00  0.0000000000000000E+00  0.0000000000000000E+00 -0.8698251414925720E-01
 0.2790000000000000E+05  0.0000000000000000E+00  0.0000000000000000E+00  0.0000000000000000E+00 -0.8698251414925720E-01
 0.2820000000000000E+05  0.0000000000000000E+00  0.0000000000000000E+00  0.0000000000000000E+00 -0.8698251414925720E-01
 0.2850000000000000E+05  0.0000000000000000E+00  0.0000000000000000E+00  0.0000000000000000E+00 -0.8698251414925720E-01
 0.2880000000000000E+05  0.0000000000000000E+00  0.0000000000000000E+00  0.0000000000000000E+00 -0.8698251414925720E-01
 0.2910000000000000E+05  0.0000000000000000E+00  0.0000000000000000E+00  0.0000000000000000E+00 -0.8698251414925720E-01
 0.2940000000000000E+05  0.0000000000000000E+00  0.0000000000000000E+00  0.0000000000000000E+00 -0.8698251414925720E-01
 0.2970000000000000E+05  0.0000000000000000E+00  0.0000000000000000E+00  0.0000000000000000E+00 -0.8698251414925720E-01
 0.3000000000000000E+05  0.0000000000000000E+00  0.0000000000000000E+00  0.0000000000000000E+00 -0.8698251414925720E-01
 0.3030000000000000E+05  0.0000000000000000E+00  0.0000000000000000E+00  0.0000000000000000E+00 -0.8698251414925720E-01
 0.3060000000000000E+05  0.0000000000000000E+00  0.0000000000000000E+00  0.0000000000000000E+00 -0.8698251414925720E-01
 0.3090000000000000E+05  0.0000000000000000E+00  0.0000000000000000E+00  0.0000000000000000E+00 -0.8698251414925720E-01
 0.3120000000000000E+05  0.0000000000000000E+00  0.0000000000000000E+00  0.0000000000000000E+00 -0.8698251414925720E-01
 0.3150000000000000E+05  0.0000000000000000E+00  0.0000000000000000E+00  0.0000000000000000E+00 -0.8698251414925720E-01
 0.3180000000000000E+05  0.0000000000000000E+00  0.0000000000000000E+00  0.0000000000000000E+00 -0.8698251414925720E-01
 0.3210000000000000E+05  0.0000000000000000E+00  0.0000000000000000E+00  0.0000000000000000E+00 -0.8698251414925720E-01
 0.3240000000000000E+05  0.0000000000000000E+00  0.0000000000000000E+00  0.0000000000000000E+00 -0.8698251414925720E-01
 0.3270000000000000E+05  0.0000000000000000E+00  0.0000000000000000E+00  0.0000000000000000E+00 -0.8698251414925720E-01
 0.3300000000000000E+05  0.0000000000000000E+00  0.0000000000000000E+00  0.0000000000000000E+00 -0.8698251414925720E-01
 0.3330000000000000E+05  0.0000000000000000E+00  0.0000000000000000E+00  0.0000000000000000E+00 -0.8698251414925720E-01
 0.3360000000000000E+05  0.0000000000000000E+00  0.0000000000000000E+00  0.0000000000000000E+00 -0.8698251414925720E-01
 0.3390000000000000E+05  0.0000000000000000E+00  0.0000000000000000E+00  0.0000000000000000E+00 -0.8698251414925720E-01
 0.3420000000000000E+05  0.0000000000000000E+00  0.0000000000000000E+00  0.0000000000000000E+00 -0.8698251414925720E-01
 0.3450000000000000E+05  0.0000000000000000E+00  0.0000000000000000E+00  0.0000000000000000E+00 -0.8698251414925720E-01
 0.3480000000000000E+05  0.0000000000000000E+00  0.0000000000000000E+00  0.0000000000000000E+00 -0.8698251414925720E-01
 0.3510000000000000E+05  0.0000000000000000E+00  0.0000000000000000E+00  0.0000000000000000E+00 -0.8698251414925720E-01
 0.3540000000000000E+05  0.0000000000000000E+00  0.0000000000000000E+00  0.0000000000000000E+00 -0.8698251414925720E-01
 0.3570000000000000E+05  0.0000000000000000E+00  0.0000000000000000E+00  0.0000000000000000E+00 -0.8698251414925720E-01
 0.3600000000000000E+05  0.0000000000000000E+00  0.0000000000000000E+00  0.0000000000000000E+00 -0.8698251414925720E-01
 0.3630000000000000E+05  0.0000000000000000E+00  0.0000000000000000E+00  0.0000000000000000E+00 -0.8698251414925720E-01
 0.3660000000000000E+05  0.0000000000000000E+00  0.0000000000000000E+00  0.0000000000000000E+00 -0.8698251414925720E-01
 0.3690000000000000E+05  0.0000000000000000E+00  0.0000000000000000E+00  0.0000000000000000E+00 -0.8698251414925720E-01
 0.3720000000000000E+05  0.0000000000000000E+00  0.0000000000000000E+00  0.0000000000000000E+00 -0.8698251414925720E-01
 0.3750000000000000E+05  0.0000000000000000E+00  0.0000000000000000E+00  0.0000000000000000E+00 -0.8698251414925720E-01
 0.3780000000000000E+05  0.0000000000000000E+00  0.0000000000000000E+00  0.0000000000000000E+00 -0.8698251414925720E-01
 0.3810000000000000E+05  0.0000000000000000E+00  0.0000000000000000E+00  0.0000000000000000E+00 -0.8698251414925720E-01
 0.3840000000000000E+05  0.0000000000000000E+00  0.0000000000000000E+00  0.0000000000000000E+00 -0.8698251414925720E-01
 0.3870000000000000E+05  0.0000000000000000E+00  0.0000000000000000E+00  0.0000000000000000E+00 -0.8698251414925720E-01
 0.3900000000000000E+05  0.0000000000000000E+00  0.0000000000000000E+00  0.0000000000000000E+00 -0.8698251414925720E-01
 0.3930000000000000E+05  0.0000000000000000E+00  0.0000000000000000E+00  0.0000000000000000E+00 -0.8698251414925720E-01
 0.3960000000000000E+05  0.0000000000000000E+00  0.0000000000000000E+00  0.0000000000000000E+00 -0.8698251414925720E-01
 0.3990000000000000E+05  0.0000000000000000E+00  0.0000000000000000E+00  0.0000000000000000E+00 -0.8698251414925720E-01
 0.4020000000000000E+05  0.0000000000000000E+00  0.0000000000000000E+00  0.0000000000000000E+00 -0.8698251414925720E-01
 0.4050000000000000E+05  0.0000000000000000E+00  0.0000000000000000E+00  0.0000000000000000E+00 -0.8698251414925720E-01
 0.4080000000000000E+05  0.0000000000000000E+00  0.0000000000000000E+00  0.0000000000000000E+00 -0.8698251414925720E-01
 0.4110000000000000E+05  0.0000000000000000E+00  0.0000000000000000E+00  0.0000000000000000E+00 -0.8698251414925720E-01
 0.4140000000000000E+05  0.0000000000000000E+00  0.0000000000000000E+00  0.0000000000000000E+00 -0.8698251414925720E-01
 0.4170000000000000E+05  0.0000000000000000E+00  0.0000000000000000E+00  0.0000000000000000E+00 -0.8698251414925720E-01
 0.4200000000000000E+05  0.0000000000000000E+00  0.0000000000000000E+00  0.0000000000000000E+00 -0.8698251414925720E-01
 0.4230000000000000E+05  0.0000000000000000E+00  0.0000000000000000E+00  0.0000000000000000E+00 -0.8698251414925720E-01
 0.4260000000000000E+05  0.0000000000000000E+00  0.0000000000000000E+00  0.0000000000000000E+00 -0.8698251414925720E-01
 0.4290000000000000E+05  0.0000000000000000E+00  0.0000000000000000E+00  0.0000000000000000E+00 -0.8698251414925720E-01
 0.4320000000000000E+05  0.0000000000000000E+00  0.0000000000000000E+00  0.0000000000000000E+00 -0.8698251414925720E-01
