TITLE="ref_flow"
VARIABLES="Time [s]"
#P   1 :: Element:   22001 X,Y,Z:   0.00       0.00       50.0    
#P   2 :: Element:   17001 X,Y,Z:   0.00       0.00       150.    
#P   3 :: Element:   12001 X,Y,Z:   0.00       0.00       250.    
#P   4 :: Element:    7001 X,Y,Z:   0.00       0.00       350.    
#P   5 :: Element:    2001 X,Y,Z:   0.00       0.00       450.    
#P   6 :: Element:   22100 X,Y,Z:  0.100E+04   0.00       50.0    
#P   7 :: Element:   17100 X,Y,Z:  0.100E+04   0.00       150.    
#P   8 :: Element:   12100 X,Y,Z:  0.100E+04   0.00       250.    
#P   9 :: Element:    7100 X,Y,Z:  0.100E+04   0.00       350.    
#P  10 :: Element:    2100 X,Y,Z:  0.100E+04   0.00       450.    
"P   1"
"P   2"
"P   3"
"P   4"
"P   5"
"P   6"
"P   7"
"P   8"
"P   9"
"P  10"
ZONE T="{X,Y,Z} Head/Pressure/Depth"
 0.0000000000000000E+00  0.2700000000000000E+03  0.2700000000000000E+03  0.2700000000000000E+03  0.2689391251797220E+03  0.2678188978702310E+03  0.2730346909077630E+03  0.2727888238485750E+03  0.2712644016272080E+03  0.2708573200770530E+03  0.2706335120736610E+03
 0.3000000000000000E+03  0.5000000000000000E+02  0.1500000000000000E+03  0.2500000000000000E+03  0.2689965055118723E+03  0.2678204228043651E+03  0.2730008448066528E+03  0.2727387926391196E+03  0.2712901571632204E+03  0.2708859951076515E+03  0.2707076103574640E+03
 0.6000000000000000E+03  0.5000000000000000E+02  0.1500000000000000E+03  0.2500000000000000E+03  0.2690421140937894E+03  0.2678239878494093E+03  0.2728760120888307E+03  0.2725636358820074E+03  0.2713227596774002E+03  0.2709279275314111E+03  0.2707712109620020E+03
 0.9000000000000000E+03  0.5000000000000000E+02  0.1500000000000000E+03  0.2500000000000000E+03  0.2690703696568995E+03  0.2678288243846163E+03  0.2726072775492995E+03  0.2722052145764549E+03  0.2713550385484950E+03  0.2709747249307171E+03  0.2708271782526508E+03
 0.1200000000000000E+04  0.5000000000000000E+02  0.1500000000000000E+03  0.2500000000000000E+03  0.2690815661845614E+03  0.2678337813718548E+03  0.2721669205304125E+03  0.2716447206722476E+03  0.2713823868867379E+03  0.2710221862457768E+03  0.2708773567372230E+03
 0.1500000000000000E+04  0.4484968434898113E+02  0.1500000000000000E+03  0.2488090723478833E+03  0.2690769273944307E+03  0.2678378966267077E+03  0.2715524378305591E+03  0.2708950864341754E+03  0.2714004201666704E+03  0.2710677584527376E+03  0.2709226624827999E+03
 0.1800000000000000E+04  0.4360864984989386E+02  0.1500000000000000E+03  0.2477460419861596E+03  0.2690571790538482E+03  0.2678405202527290E+03  0.2707789138359466E+03  0.2699874416404863E+03  0.2714046508239581E+03  0.2711094758495748E+03  0.2709632450444968E+03
 0.2100000000000000E+04  0.4141149795347748E+02  0.1500000000000000E+03  0.2467938221513725E+03  0.2690223861361799E+03  0.2678412459790102E+03  0.2698686920896407E+03  0.2689565703009355E+03  0.2713908115263390E+03  0.2711455936654941E+03  0.2709990692081615E+03
 0.2400000000000000E+04  0.4034186539573354E+02  0.1500000000000000E+03  0.2457248218306300E+03  0.2689719215688270E+03  0.2678398062467419E+03  0.2688459366481354E+03  0.2678353266127440E+03  0.2713552185992338E+03  0.2711744419988004E+03  0.2710297359059051E+03
 0.2700000000000000E+04  0.3950890289344292E+02  0.1500000000000000E+03  0.2446328650105877E+03  0.2689046940042060E+03  0.2678359920745671E+03  0.2677328881054478E+03  0.2666508397717624E+03  0.2712950223671454E+03  0.2711944199468350E+03  0.2710547848569139E+03
 0.3000000000000000E+04  0.3882026539160572E+02  0.1500000000000000E+03  0.2435651992240295E+03  0.2688193918058683E+03  0.2678296075848872E+03  0.2665488558626109E+03  0.2654245560406387E+03  0.2712083011593498E+03  0.2712040347810506E+03  0.2710736465653706E+03
 0.3300000000000000E+04  0.3812257121659378E+02  0.1500000000000000E+03  0.2424459030447135E+03  0.2687146936836551E+03  0.2678204528880598E+03  0.2653100439096744E+03  0.2641728218285940E+03  0.2710940286753391E+03  0.2712019539627595E+03  0.2710857303807085E+03
 0.3600000000000000E+04  0.3743085676076936E+02  0.1500000000000000E+03  0.2413073645462833E+03  0.2685894323655313E+03  0.2678083251317917E+03  0.2640298313925215E+03  0.2629078218267339E+03  0.2709519640574149E+03  0.2711870505791974E+03  0.2710904689740709E+03
 0.3900000000000000E+04  0.3680689585365239E+02  0.1465941643968666E+03  0.2401514415465270E+03  0.2684426951613938E+03  0.2677930284491437E+03  0.2627191667627702E+03  0.2616384545923053E+03  0.2707825031467311E+03  0.2711584294518022E+03  0.2710873498665767E+03
 0.4200000000000000E+04  0.3624576100405012E+02  0.1448067464134532E+03  0.2389785391200595E+03  0.2682738890676159E+03  0.2677743868206240E+03  0.2613870198244945E+03  0.2603711833818182E+03  0.2705865253445019E+03  0.2711154368923194E+03  0.2710759380264886E+03
 0.4500000000000000E+04  0.3573875637309477E+02  0.1431216789434540E+03  0.2377858425313584E+03  0.2680827567618007E+03  0.2677522558010601E+03  0.2600407766032938E+03  0.2591106976987771E+03  0.2703652528479390E+03  0.2710576543976978E+03  0.2710558882756806E+03
 0.4800000000000000E+04  0.3527796518364725E+02  0.1415187504991110E+03  0.2365778580136909E+03  0.2678693655358176E+03  0.2677265311289380E+03  0.2586865593522641E+03  0.2578604110031403E+03  0.2701201314837276E+03  0.2709848811164861E+03  0.2710269507009068E+03
 0.5100000000000000E+04  0.3485665989937237E+02  0.1398739399298846E+03  0.2353346832360404E+03  0.2676340675826102E+03  0.2676971533673214E+03  0.2573294745307174E+03  0.2566228203476377E+03  0.2698527357466932E+03  0.2708971094107886E+03  0.2709889702025613E+03
 0.5400000000000000E+04  0.3446924033920423E+02  0.1382153842721011E+03  0.2340494725668800E+03  0.2673774471602817E+03  0.2676641086097719E+03  0.2559738017450023E+03  0.2553997608442602E+03  0.2695646967064937E+03  0.2707944971921019E+03  0.2709418820629433E+03
 0.5700000000000000E+04  0.3411110537046677E+02  0.1365741815314279E+03  0.2327278447627201E+03  0.2671002742599869E+03  0.2676274260920893E+03  0.2546231379913611E+03  0.2541925841288419E+03  0.2692576496033030E+03  0.2706773397563667E+03  0.2708857047404741E+03
 0.6000000000000000E+04  0.3377848771062531E+02  0.1349651403519797E+03  0.2313791793285668E+03  0.2668034705693095E+03  0.2675871739665227E+03  0.2532805094135863E+03  0.2530022838350022E+03  0.2689331973683830E+03  0.2705460429743587E+03  0.2708205311642936E+03
 0.6300000000000000E+04  0.3346828863553279E+02  0.1333958038124558E+03  0.2300127235396794E+03  0.2664880828800842E+03  0.2675434543372359E+03  0.2519484596340020E+03  0.2518295843934615E+03  0.2685928864678320E+03  0.2704010989192896E+03  0.2707465192492988E+03
 0.6600000000000000E+04  0.3317793781927553E+02  0.1318703456099460E+03  0.2286365506147060E+03  0.2661552585126661E+03  0.2674963982122235E+03  0.2506291210424336E+03  0.2506750046186817E+03  0.2682381919451927E+03  0.2702430644648595E+03  0.2706638823378782E+03
 0.6900000000000000E+04  0.3290528321237392E+02  0.1303909699548842E+03  0.2272574375558738E+03  0.2658062204488573E+03  0.2674461606286312E+03  0.2493242734098720E+03  0.2495389038396218E+03  0.2678705091339868E+03  0.2700725429908162E+03  0.2705728799814897E+03
 0.7200000000000000E+04  0.3264850653475038E+02  0.1289585866626348E+03  0.2258809836347619E+03  0.2654422424227716E+03  0.2673929160020486E+03  0.2480353928211290E+03  0.2484215158521398E+03  0.2674911500733853E+03  0.2698901690843252E+03  0.2704738093367858E+03
 0.7500000000000000E+04  0.3240605842493145E+02  0.1275732252309667E+03  0.2245117761274766E+03  0.2650646251650376E+03  0.2673368537010501E+03  0.2467636930158396E+03  0.2473229742926460E+03  0.2671013431450898E+03  0.2696965959817417E+03  0.2703669973286467E+03
 0.7800000000000000E+04  0.3217660826483368E+02  0.1262343150946752E+03  0.2231535502145398E+03  0.2646746749264841E+03  0.2672781738697274E+03  0.2455101606358886E+03  0.2462433319047142E+03  0.2667022348407924E+03  0.2694924854262925E+03  0.2702527936440760E+03
 0.8100000000000000E+04  0.3195900496582425E+02  0.1249408818769773E+03  0.2218093294588272E+03  0.2642736849781617E+03  0.2672170835495445E+03  0.2442755854869285E+03  0.2451825754098321E+03  0.2662948928732736E+03  0.2692784995979206E+03  0.2701315645609698E+03
 0.8400000000000000E+04  0.3175224601516964E+02  0.1236916865395914E+03  0.2204815450151019E+03  0.2638629203496464E+03  0.2671537931617927E+03  0.2430605866579000E+03  0.2441406371769424E+03  0.2658803100737632E+03  0.2690552947832696E+03  0.2700036875779709E+03
 0.8700000000000000E+04  0.3155545281446242E+02  0.1224853245091834E+03  0.2191721353138467E+03  0.2634436057480664E+03  0.2670885134021412E+03  0.2418656351587538E+03  0.2431174045315491E+03  0.2654594086884410E+03  0.2688235164829426E+03  0.2698695467900848E+03
 0.9000000000000000E+04  0.3136785086117482E+02  0.1213202963432642E+03  0.2178826289056788E+03  0.2630169164055375E+03  0.2670214525775773E+03  0.2406910736043328E+03  0.2421127273007434E+03  0.2650330448112956E+03  0.2685837956903949E+03  0.2697295289441332E+03
 0.9300000000000000E+04  0.3118875369478763E+02  0.1201950579808034E+03  0.2166142131764001E+03  0.2625839715053747E+03  0.2669528143919749E+03  0.2395371333741573E+03  0.2411264240204160E+03  0.2646020127801606E+03  0.2683367461160530E+03  0.2695840201048630E+03
 0.9600000000000000E+04  0.3101754979573020E+02  0.1191080562581000E+03  0.2153677913562378E+03  0.2621458298053562E+03  0.2668827961652936E+03  0.2384039496028446E+03  0.2401582871118386E+03  0.2641670494264339E+03  0.2680829621678037E+03  0.2694334028636260E+03
 0.9900000000000000E+04  0.3085369181982669E+02  0.1180577537422853E+03  0.2141440298831209E+03  0.2617034870839917E+03  0.2668115874555417E+03  0.2372915742972681E+03  0.2392080872509584E+03  0.2637288381136116E+03  0.2678230175329242E+03  0.2692780540252073E+03
 0.1020000000000000E+05  0.3069668769431121E+02  0.1170426457975390E+03  0.2129433978286974E+03  0.2612578750651257E+03  0.2667393690425955E+03  0.2361999878298358E+03  0.2382755770944399E+03  0.2632880125304783E+03  0.2675574642359213E+03  0.2691183427133278E+03
 0.1050000000000000E+05  0.3054609320829461E+02  0.1160612719959255E+03  0.2117661997881370E+03  0.2608098615155936E+03  0.2666663122280252E+03  0.2351291090194608E+03  0.2373604944843237E+03  0.2628451602254954E+03  0.2672868320715545E+03  0.2689546288407803E+03
 0.1080000000000000E+05  0.3040150581098347E+02  0.1151122234120951E+03  0.2106126033769513E+03  0.2603602512529066E+03  0.2665925784040717E+03  0.2340788039807962E+03  0.2364625652230516E+03  0.2624008258824663E+03  0.2670116283327511E+03  0.2687872618957599E+03
 0.1110000000000000E+05  0.3026255939203806E+02  0.1141941469293189E+03  0.2094826622667650E+03  0.2599097878411201E+03  0.2665183188466697E+03  0.2330488938966297E+03  0.2355815054889607E+03  0.2619555143460599E+03  0.2667323377697007E+03  0.2686165800011501E+03
 0.1140000000000000E+05  0.3012891986529178E+02  0.1133057473859652E+03  0.2083763355206050E+03  0.2594591557908091E+03  0.2664436746908871E+03  0.2320391618468806E+03  0.2347170239466991E+03  0.2615096934107654E+03  0.2664494227296951E+03  0.2684429092085313E+03
 0.1170000000000000E+05  0.3000028141323158E+02  0.1124457881738764E+03  0.2072935038499191E+03  0.2590089831126720E+03  0.2663687770515443E+03  0.2310493588095839E+03  0.2338688235956025E+03  0.2610637963894637E+03  0.2661633234378066E+03  0.2682665629932106E+03
 0.1200000000000000E+05  0.2987636327781238E+02  0.1116130907404037E+03  0.2062339833038657E+03  0.2585598441033076E+03  0.2662937472565353E+03  0.2300792089339576E+03  0.2330366033906748E+03  0.2606182244787988E+03  0.2658744583867899E+03  0.2680878419205879E+03
 0.1230000000000000E+05  0.2975690700525803E+02  0.1108065333280773E+03  0.2051975368111641E+03  0.2581122622664281E+03  0.2662186971650891E+03  0.2291284141726312E+03  0.2322200596645565E+03  0.2601733489385181E+03  0.2655832248111118E+03  0.2679070334579159E+03
 0.1260000000000000E+05  0.2964167406992432E+02  0.1100250491986579E+03  0.2041838839216340E+03  0.2576667132935098E+03  0.2661437295476595E+03  0.2281966583489876E+03  0.2314188873741532E+03  0.2597295131012706E+03  0.2652899992250874E+03  0.2677244119087238E+03
 0.1290000000000000E+05  0.2953044381612971E+02  0.1092676245234842E+03  0.2031927090350489E+03  0.2572236280450227E+03  0.2660689385081637E+03  0.2272836107260125E+03  0.2306327811919618E+03  0.2592870342283341E+03  0.2649951380090982E+03  0.2675402384500779E+03
 0.1320000000000000E+05  0.2942301166789089E+02  0.1085332960737187E+03  0.2022236683563519E+03  0.2567833954875177E+03  0.2659944099328826E+03  0.2263889291348213E+03  0.2298614364593205E+03  0.2588462052255076E+03  0.2646989780309864E+03  0.2673547612554319E+03
 0.1350000000000000E+05  0.2931442906601321E+02  0.1078210330676667E+03  0.2012763913646768E+03  0.2563463639039462E+03  0.2659202216411069E+03  0.2255122614443225E+03  0.2291045483779905E+03  0.2584072967191090E+03  0.2644018372366481E+03  0.2671682130881491E+03
 0.1380000000000000E+05  0.2918542366973410E+02  0.1071293075283896E+03  0.2003505000900714E+03  0.2559128506018317E+03  0.2658464451144959E+03  0.2246532470516046E+03  0.2283618107730429E+03  0.2579705562415107E+03  0.2641040156300787E+03  0.2669808222230644E+03
 0.1410000000000000E+05  0.2905513985504560E+02  0.1064566452889705E+03  0.1994455852467533E+03  0.2554831331171194E+03  0.2657731440511160E+03  0.2238115098929943E+03  0.2276329053319218E+03  0.2575362132922010E+03  0.2638057949195827E+03  0.2667927963941004E+03
 0.1440000000000000E+05  0.2892673797633088E+02  0.1058019633939209E+03  0.1985612231978926E+03  0.2550574607759205E+03  0.2657003760906454E+03  0.2229866664188186E+03  0.2269175123761809E+03  0.2571044779518727E+03  0.2635074408900010E+03  0.2666043342035552E+03
 0.1470000000000000E+05  0.2880113338567116E+02  0.1051645107865008E+03  0.1976969747557378E+03  0.2546360535602619E+03  0.2656281929443380E+03  0.2221783280859271E+03  0.2262153128475142E+03  0.2566755422801067E+03  0.2632092027684812E+03  0.2664156226329850E+03
 0.1500000000000000E+05  0.2867863426731639E+02  0.1045437255854828E+03  0.1968523901022329E+03  0.2542191046299412E+03  0.2655566408066449E+03  0.2213861065640654E+03  0.2255259936689999E+03  0.2562495814286506E+03  0.2629113140708236E+03  0.2662268374518235E+03
 0.1530000000000000E+05  0.2855932693704896E+02  0.1039391339608731E+03  0.1960270145390004E+03  0.2538067824091922E+03  0.2654857607451439E+03  0.2206096175764205E+03  0.2248492509148333E+03  0.2558267546429071E+03  0.2626139932932024E+03  0.2660381435899998E+03
 0.1560000000000000E+05  0.2844320271812169E+02  0.1033502979149857E+03  0.1952203938323917E+03  0.2533992324883151E+03  0.2654155890718656E+03  0.2198484832387500E+03  0.2241847910074344E+03  0.2554072062531853E+03  0.2623174445460211E+03  0.2658496955235473E+03
 0.1590000000000000E+05  0.2833020817877176E+02  0.1027767927500352E+03  0.1944320784310360E+03  0.2529965794120960E+03  0.2653461576949869E+03  0.2191023332610155E+03  0.2235323306808035E+03  0.2549910666641008E+03  0.2620218581724885E+03  0.2656616376715907E+03
 0.1620000000000000E+05  0.2822026773228323E+02  0.1022181990874655E+03  0.1936616263806620E+03  0.2525989283774178E+03  0.2652774944510292E+03  0.2183708054545882E+03  0.2228915963592846E+03  0.2545784533273826E+03  0.2617274113642847E+03  0.2654741048013976E+03
 0.1650000000000000E+05  0.2811329483622156E+02  0.1016741011964581E+03  0.1929086050946176E+03  0.2522063668469420E+03  0.2652096234187403E+03  0.2176535458795733E+03  0.2222623233619261E+03  0.2541694716783112E+03  0.2614342687759586E+03  0.2652872224385735E+03
 0.1680000000000000E+05  0.2800919796819706E+02  0.1011440877253714E+03  0.1921725922628809E+03  0.2518189660789491E+03  0.2651425652159969E+03  0.2169502088336299E+03  0.2216442551394638E+03  0.2537642160195443E+03  0.2611425831354289E+03  0.2651011072794764E+03
 0.1710000000000000E+05  0.2790788399418944E+02  0.1006277531271384E+03  0.1914531761796411E+03  0.2514367825704488E+03  0.2650763372807252E+03  0.2162604567849867E+03  0.2210371426237051E+03  0.2533627703426647E+03  0.2608524958462941E+03  0.2649158676027853E+03
 0.1740000000000000E+05  0.2780926014012663E+02  0.1001246990882762E+03  0.1907499557136491E+03  0.2510598594101696E+03  0.2650109541363955E+03  0.2155839602936429E+03  0.2204407437031377E+03  0.2529652090841740E+03  0.2605641375773970E+03  0.2647316036772337E+03
 0.1770000000000000E+05  0.2771323517077710E+02  0.9963453571990641E+02  0.1900625400802543E+03  0.2506882275390111E+03  0.2649464276422874E+03  0.2149203979348272E+03  0.2198548228103442E+03  0.2525715978174120E+03  0.2602776288356205E+03  0.2645484081628013E+03
 0.1800000000000000E+05  0.2761972009725898E+02  0.9915688245738285E+02  0.1893905485184481E+03  0.2503219069172805E+03  0.2648827672285316E+03  0.2142694562257809E+03  0.2192791505982972E+03  0.2521819938847997E+03  0.2599930805188204E+03  0.2643663665030309E+03
 0.1830000000000000E+05  0.2752862859361756E+02  0.9869136868791317E+02  0.1887336099352814E+03  0.2499609075999583E+03  0.2648199801158990E+03  0.2136308295525378E+03  0.2187135036830113E+03  0.2517964469761668E+03  0.2597105944467853E+03  0.2641855573065796E+03
 0.1860000000000000E+05  0.2743987722859878E+02  0.9823763414873741E+02  0.1880913625524391E+03  0.2496052307228472E+03  0.2647580715203885E+03  0.2130042200928506E+03  0.2181576644337326E+03  0.2514149996592380E+03  0.2594302638690476E+03  0.2640060527165933E+03
 0.1890000000000000E+05  0.2735338557751528E+02  0.9779532914127300E+02  0.1874634535723482E+03  0.2492548694038629E+03  0.2646970448428132E+03  0.2123893377322686E+03  0.2176114207961359E+03  0.2510376878680379E+03  0.2591521739491114E+03  0.2638279187668581E+03
 0.1920000000000000E+05  0.2726907625521674E+02  0.9736411460196682E+02  0.1868495388708398E+03  0.2489098095644999E+03  0.2646369018437568E+03  0.2117858999715371E+03  0.2170745661378785E+03  0.2506645413543426E+03  0.2588764022252300E+03  0.2636512157240694E+03
 0.1950000000000000E+05  0.2718687489679909E+02  0.9694366206385176E+02  0.1862492827175900E+03  0.2485700306771471E+03  0.2645776428044373E+03  0.2111936318245010E+03  0.2165468991089434E+03  0.2502955841065845E+03  0.2586030190482547E+03  0.2634759984158607E+03
 0.1980000000000000E+05  0.2710671010375330E+02  0.9653365353616540E+02  0.1856623575225947E+03  0.2482355064439913E+03  0.2645192666741457E+03  0.2106122657064610E+03  0.2160282235115720E+03  0.2499308347399071E+03  0.2583320879973267E+03  0.2633023165444381E+03
 0.2010000000000000E+05  0.2702851336753431E+02  0.9613378132361589E+02  0.1850884436056224E+03  0.2479062054133337E+03  0.2644617712050360E+03  0.2100415413134461E+03  0.2155183481762855E+03  0.2495703068604375E+03  0.2580636662743170E+03  0.2631302149858885E+03
 0.2040000000000000E+05  0.2695221897877677E+02  0.9574374780212621E+02  0.1845272289852115E+03  0.2475820915388250E+03  0.2644051530751000E+03  0.2094812054931821E+03  0.2150170868417227E+03  0.2492140094063144E+03  0.2577978050779911E+03  0.2629597340753579E+03
 0.2070000000000000E+05  0.2687776392787094E+02  0.9536326516408975E+02  0.1839784091838969E+03  0.2472631246868994E+03  0.2643494080001909E+03  0.2089310121087169E+03  0.2145242580368637E+03  0.2488619469675685E+03  0.2575345499588723E+03  0.2627909098783870E+03
 0.2100000000000000E+05  0.2680508780089368E+02  0.9499205514317617E+02  0.1834416870466933E+03  0.2469492610972614E+03  0.2642945308359570E+03  0.2083907218957303E+03  0.2140396849647944E+03  0.2485141200866155E+03  0.2572739411557715E+03  0.2626237744487896E+03
 0.2130000000000000E+05  0.2673413267369461E+02  0.9462984872638830E+02  0.1829167725702953E+03  0.2466404538009126E+03  0.2642405156705321E+03  0.2078601023145764E+03  0.2135631953875565E+03  0.2481705255408433E+03  0.2570160139149029E+03  0.2624583560735027E+03
 0.2160000000000000E+05  0.2666484300610239E+02  0.9427638585925011E+02  0.1824033827408851E+03  0.2463366529997864E+03  0.2641873559087819E+03  0.2073389273980696E+03  0.2130946215118870E+03  0.2478311566085649E+03  0.2567607987924628E+03  0.2622946795048664E+03
 0.2190000000000000E+05  0.2659716553761647E+02  0.9393141514859313E+02  0.1819012413788432E+03  0.2460378064116874E+03  0.2641350443488671E+03  0.2068269775959733E+03  0.2126337998758109E+03  0.2474960033194415E+03  0.2565083219414960E+03  0.2621327661808230E+03
 0.2220000000000000E+05  0.2653104918552622E+02  0.9359469356630905E+02  0.1814100789890072E+03  0.2457438595838527E+03  0.2640835732518256E+03  0.2063240396170833E+03  0.2121805712361602E+03  0.2471650526903545E+03  0.2562586053838349E+03  0.2619726344335347E+03
 0.2250000000000000E+05  0.2646644494608208E+02  0.9326598615658519E+02  0.1809296326154179E+03  0.2454547561781245E+03  0.2640329344048184E+03  0.2058299062697192E+03  0.2117347804571391E+03  0.2468382889475966E+03  0.2560116672678342E+03  0.2618142996868999E+03
 0.2280000000000000E+05  0.2640330579912946E+02  0.9294506574847728E+02  0.1804596456997433E+03  0.2451704382304214E+03  0.2639831191786348E+03  0.2053443763013643E+03  0.2112962764000950E+03  0.2465156937361838E+03  0.2557675221126106E+03  0.2616577746434803E+03
 0.2310000000000000E+05  0.2634158661644448E+02  0.9263171267515925E+02  0.1799998679427632E+03  0.2448908463869135E+03  0.2639341185799926E+03  0.2048672542381189E+03  0.2108649118146572E+03  0.2461972463170061E+03  0.2555261810394245E+03  0.2615030694613264E+03
 0.2340000000000000E+05  0.2628124407389750E+02  0.9232571450079290E+02  0.1795500551684634E+03  0.2446159201190253E+03  0.2638859232991197E+03  0.2043983502245558E+03  0.2104405432314051E+03  0.2458829237524975E+03  0.2552876519908359E+03  0.2613501919211577E+03
 0.2370000000000000E+05  0.2622223656748079E+02  0.9202686575564927E+02  0.1791099691904097E+03  0.2443455979192560E+03  0.2638385237530586E+03  0.2039374798645048E+03  0.2100230308562185E+03  0.2455727010814510E+03  0.2550519399382223E+03  0.2611991475843806E+03
 0.2400000000000000E+05  0.2616452413317814E+02  0.9173496767987743E+02  0.1786793776801722E+03  0.2440798174794964E+03  0.2637919101250852E+03  0.2034844640632245E+03  0.2096122384664493E+03  0.2452665514835677E+03  0.2548190470782171E+03  0.2610499399423830E+03
 0.2430000000000000E+05  0.2610806837060782E+02  0.9144982797613100E+02  0.1782580540376476E+03  0.2438185158534293E+03  0.2637460724006049E+03  0.2030391288713616E+03  0.2092080333090323E+03  0.2449644464342932E+03  0.2545889730186050E+03  0.2609025705575383E+03
 0.2460000000000000E+05  0.2605283237034168E+02  0.9117126057112368E+02  0.1778457772631807E+03  0.2435616296044155E+03  0.2637010003998405E+03  0.2026013053310462E+03  0.2088102860006411E+03  0.2446663558504635E+03  0.2543617149541849E+03  0.2607570391963359E+03
 0.2490000000000000E+05  0.2599878064477851E+02  0.9089908538607749E+02  0.1774423318314353E+03  0.2433090949401231E+03  0.2636566838076034E+03  0.2021708293244189E+03  0.2084188704299762E+03  0.2443722482272594E+03  0.2541372678330902E+03  0.2606133439550360E+03
 0.2520000000000000E+05  0.2594587906244288E+02  0.9063312811594842E+02  0.1770475075669893E+03  0.2430608478350364E+03  0.2636131122004074E+03  0.2017475414248412E+03  0.2080336636622522E+03  0.2440820907669316E+03  0.2539156245140274E+03  0.2604714813782297E+03
 0.2550000000000000E+05  0.2589409478556615E+02  0.9037322001725413E+02  0.1766610995216579E+03  0.2428168241418898E+03  0.2635702750711594E+03  0.2013312867510036E+03  0.2076545458459432E+03  0.2437958494997469E+03  0.2536967759148851E+03  0.2603314465706796E+03
 0.2580000000000000E+05  0.2584339621080581E+02  0.9011919770428636E+02  0.1762829078535595E+03  0.2425769596929537E+03  0.2635281618516372E+03  0.2009219148241025E+03  0.2072814001218211E+03  0.2435134893975757E+03  0.2534807111531348E+03  0.2601932333027743E+03
 0.2610000000000000E+05  0.2579375291295858E+02  0.8987090295346025E+02  0.1759127377079501E+03  0.2423411903920141E+03  0.2634867619329448E+03  0.2005192794282286E+03  0.2069141125343194E+03  0.2432349744805190E+03  0.2532674176784335E+03  0.2600568341099429E+03
 0.2640000000000000E+05  0.2574513559152198E+02  0.8962818251553281E+02  0.1755503990998594E+03  0.2421094522978279E+03  0.2634460646841215E+03  0.2001232384740796E+03  0.2065525719452334E+03  0.2429602679169559E+03  0.2530568813978128E+03  0.2599222403863390E+03
 0.2670000000000000E+05  0.2569751601996309E+02  0.8939088793541089E+02  0.1751957067985626E+03  0.2418816816997633E+03  0.2634060594690540E+03  0.1997336538660811E+03  0.2061966699497644E+03  0.2426893321173769E+03  0.2528490867938355E+03  0.2597894424731066E+03
 0.2700000000000000E+05  0.2565086699755970E+02  0.8915887537926224E+02  0.1748484802139202E+03  0.2416578151862164E+03  0.2633667356618404E+03  0.1993503913729753E+03  0.2058463007949026E+03  0.2424221288223379E+03  0.2526440170360646E+03  0.2596584297415004E+03
 0.2730000000000000E+05  0.2560516230367637E+02  0.8893200546864217E+02  0.1745085432846237E+03  0.2414377897064632E+03  0.2633280826607309E+03  0.1989733205019228E+03  0.2055013613001374E+03  0.2421586191848642E+03  0.2524416540861910E+03  0.2595291906711519E+03
 0.2760000000000000E+05  0.2556037665435237E+02  0.8871014312135000E+02  0.1741757243683729E+03  0.2412215426264123E+03  0.2632900899007626E+03  0.1986023143761341E+03  0.2051617507804728E+03  0.2418987638476135E+03  0.2522419787971405E+03  0.2594017129237215E+03
 0.2790000000000000E+05  0.2551648566107678E+02  0.8849315739873339E+02  0.1738498561340145E+03  0.2410090117787783E+03  0.2632527468651966E+03  0.1982372496160393E+03  0.2048273709717255E+03  0.2416425230150857E+03  0.2520449710064681E+03  0.2592759834122091E+03
 0.2820000000000000E+05  0.2547346579163539E+02  0.8828092135916653E+02  0.1735307754556645E+03  0.2408001355081275E+03  0.2632160430958533E+03  0.1978780062239863E+03  0.2044981259580743E+03  0.2413898565211596E+03  0.2518506096243358E+03  0.2591519883661269E+03
 0.2850000000000000E+05  0.2543129433291811E+02  0.8807331191743428E+02  0.1732183233088319E+03  0.2405948527111829E+03  0.2631799682024360E+03  0.1975244674724454E+03  0.2041739221018221E+03  0.2411407238922209E+03  0.2516588727163560E+03  0.2590297133927760E+03
 0.2880000000000000E+05  0.2538994935558158E+02  0.8787020970976441E+02  0.1729123446685600E+03  0.2403931028727980E+03  0.2631445118709245E+03  0.1971765197956901E+03  0.2038546679753374E+03  0.2408950844061230E+03  0.2514697375815601E+03  0.2589091435348546E+03
 0.2910000000000000E+05  0.2534940968046653E+02  0.8767149896425867E+02  0.1726126884095935E+03  0.2401948260979073E+03  0.2631096638711110E+03  0.1968340526849088E+03  0.2035402742951254E+03  0.2406528971472239E+03  0.2512831808257555E+03  0.2587902633245453E+03
 0.2940000000000000E+05  0.2530965484667703E+02  0.8747706737648390E+02  0.1723192072085773E+03  0.2399999631397993E+03  0.2630754140633499E+03  0.1964969585867010E+03  0.2032306538579915E+03  0.2404141210577183E+03  0.2510991784305100E+03  0.2586730568343322E+03
 0.2970000000000000E+05  0.2527066508123024E+02  0.8728680598999334E+02  0.1720317574482886E+03  0.2398084554249937E+03  0.2630417524045816E+03  0.1961651328049005E+03  0.2029257214792452E+03  0.2401787149854763E+03  0.2509177058179901E+03  0.2585575077246854E+03
 0.3000000000000000E+05  0.2523242127019284E+02  0.8710060908155957E+02  0.1717501991238997E+03  0.2396202450750143E+03  0.2630086689536901E+03  0.1958384734056611E+03  0.2026253939328975E+03  0.2399466377285885E+03  0.2507387379118789E+03  0.2584435992888082E+03
 0.3030000000000000E+05  0.2519490493122331E+02  0.8691837405090870E+02  0.1714743957512657E+03  0.2394352749252577E+03  0.2629761538762454E+03  0.1955168811257419E+03  0.2023295898938019E+03  0.2397178480768068E+03  0.2505622491945757E+03  0.2583313144945843E+03
 0.3060000000000000E+05  0.2515809818744735E+02  0.8674000131475637E+02  0.1712042142772264E+03  0.2392534885412495E+03  0.2629441974486820E+03  0.1952002592839166E+03  0.2020382298816893E+03  0.2394923048500602E+03  0.2503882137608809E+03  0.2582206360239127E+03
 0.3090000000000000E+05  0.2512198374259096E+02  0.8656539420495510E+02  0.1709395249919109E+03  0.2390748302324489E+03  0.2629127900619553E+03  0.1948885136954360E+03  0.2017512362070430E+03  0.2392699669342155E+03  0.2502166053683523E+03  0.2581115463095425E+03
 0.3120000000000000E+05  0.2508654485730785E+02  0.8639445887057063E+02  0.1706802014430288E+03  0.2388992450638282E+03  0.2628819222247204E+03  0.1945815525894665E+03  0.2014685329187668E+03  0.2390507933142413E+03  0.2500473974845102E+03  0.2580040275695591E+03
 0.3150000000000000E+05  0.2505176532663453E+02  0.8622710418371564E+02  0.1704261203521292E+03  0.2387266788653959E+03  0.2628515845660705E+03  0.1942792865294243E+03  0.2011900457535881E+03  0.2388347431049263E+03  0.2498805633310627E+03  0.2578980618396621E+03
 0.3180000000000000E+05  0.2501762945851634E+02  0.8606324164897492E+02  0.1701771615328082E+03  0.2385570782398340E+03  0.2628217678378697E+03  0.1939816283361295E+03  0.2009157020871534E+03  0.2386217755792966E+03  0.2497160759253127E+03  0.2577936310033386E+03
 0.3210000000000000E+05  0.2498412205334450E+02  0.8590278531626670E+02  0.1699332078108414E+03  0.2383903905684047E+03  0.2627924629167121E+03  0.1936884930136950E+03  0.2006454308867560E+03  0.2384118501948675E+03  0.2495539081188996E+03  0.2576907168200568E+03
 0.3240000000000000E+05  0.2495122838445466E+02  0.8574565169699042E+02  0.1696941449462168E+03  0.2382265640152622E+03  0.2627636608055404E+03  0.1933997976780734E+03  0.2003791626656505E+03  0.2382049266178561E+03  0.2493940326340222E+03  0.2575893009516061E+03
 0.3270000000000000E+05  0.2491893417953312E+02  0.8559175968331952E+02  0.1694598615570426E+03  0.2380655475303234E+03  0.2627353526349487E+03  0.1931154614881801E+03  0.2001168294389055E+03  0.2380009647454766E+03  0.2492364220972786E+03  0.2574893649866599E+03