TITLE="Layer_2"
VARIABLES="Time [s]"
"Flow Rate IN [m^3/s]"
"Flow Rate OUT [m^3/s]"
"Net Flow Rate [m^3/s]"
"Net Cumulated Volume [m^3]"
ZONE T="Flow Budget Zone#2"
 0.3000000000000000E+03  0.0000000000000000E+00  0.4710245092402693E-03 -0.4710245092402693E-03 -0.7065367638604039E-01
 0.6000000000000000E+03  0.0000000000000000E+00  0.2560054422130512E-03 -0.2560054422130512E-03 -0.1797081691040385E+00
 0.9000000000000000E+03  0.0000000000000000E+00  0.1641889855839121E-03 -0.1641889855839121E-03 -0.2427373332735830E+00
 0.1200000000000000E+04  0.3850262531868178E-05  0.1167664419717681E-03 -0.1129161794399000E-03 -0.2843031080271548E+00
 0.1500000000000000E+04  0.7563057871949131E-08  0.8400754558085283E-04 -0.8399998252298088E-04 -0.3138405323215869E+00
 0.1800000000000000E+04  0.4402768367484232E-05  0.6470258824191972E-04 -0.6029981987443549E-04 -0.3354855026811994E+00
 0.2100000000000000E+04  0.7962898150275103E-06  0.4814134323941323E-04 -0.4734505342438572E-04 -0.3516322336760225E+00
 0.2400000000000000E+04  0.3696366702638679E-05  0.3750532250686417E-04 -0.3380895580422549E-04 -0.3638053350603142E+00
 0.2700000000000000E+04  0.8954402034222207E-06  0.2773961854780872E-04 -0.2684417834438650E-04 -0.3729033051826060E+00
 0.3000000000000000E+04  0.3010287036947379E-05  0.2125227362517392E-04 -0.1824198658822654E-04 -0.3796662299224979E+00
 0.3300000000000000E+04  0.9156106505868461E-06  0.1507842343781694E-04 -0.1416281278723010E-04 -0.3845269498288164E+00
 0.3600000000000000E+04  0.2574838194191219E-05  0.1086895188096664E-04 -0.8294113686775420E-05 -0.3878954887999173E+00
 0.3900000000000000E+04  0.0000000000000000E+00  0.6584415008555262E-05 -0.6584415008555262E-05 -0.3901272681042168E+00
 0.4200000000000000E+04  0.3722316334174122E-06  0.3503589862339864E-05 -0.3131358228922452E-05 -0.3915846340898385E+00
 0.4500000000000000E+04  0.1117269724782544E-06  0.8332369641394154E-06 -0.7215099916611610E-06 -0.3921625643229261E+00
 0.4800000000000000E+04  0.2079517894215961E-05  0.0000000000000000E+00  0.2079517894215961E-05 -0.3919588631375429E+00
 0.5100000000000000E+04  0.0000000000000000E+00  0.0000000000000000E+00  0.0000000000000000E+00 -0.3916469354534104E+00
 0.5400000000000000E+04  0.0000000000000000E+00  0.0000000000000000E+00  0.0000000000000000E+00 -0.3916469354534104E+00
 0.5700000000000000E+04  0.0000000000000000E+00  0.0000000000000000E+00  0.0000000000000000E+00 -0.3916469354534104E+00
 0.6000000000000000E+04  0.0000000000000000E+00  0.0000000000000000E+00  0.0000000000000000E+00 -0.3916469354534104E+00
 0.6300000000000000E+04  0.0000000000000000E+00  0.0000000000000000E+00  0.0000000000000000E+00 -0.3916469354534104E+00
 0.6600000000000000E+04  0.0000000000000000E+00  0.0000000000000000E+00  0.0000000000000000E+00 -0.3916469354534104E+00
 0.6900000000000000E+04  0.0000000000000000E+00  0.0000000000000000E+00  0.0000000000000000E+00 -0.3916469354534104E+00
 0.7200000000000000E+04  0.0000000000000000E+00  0.0000000000000000E+00  0.0000000000000000E+00 -0.3916469354534104E+00
 0.7500000000000000E+04  0.0000000000000000E+00  0.0000000000000000E+00  0.0000000000000000E+00 -0.3916469354534104E+00
 0.7800000000000000E+04  0.0000000000000000E+00  0.0000000000000000E+00  0.0000000000000000E+00 -0.3916469354534104E+00
 0.8100000000000000E+04  0.0000000000000000E+00  0.0000000000000000E+00  0.0000000000000000E+00 -0.3916469354534104E+00
 0.8400000000000000E+04  0.0000000000000000E+00  0.0000000000000000E+00  0.0000000000000000E+00 -0.3916469354534104E+00
 0.8700000000000000E+04  0.0000000000000000E+00  0.0000000000000000E+00  0.0000000000000000E+00 -0.3916469354534104E+00
 0.9000000000000000E+04  0.0000000000000000E+00  0.0000000000000000E+00  0.0000000000000000E+00 -0.3916469354534104E+00
 0.9300000000000000E+04  0.0000000000000000E+00  0.0000000000000000E+00  0.0000000000000000E+00 -0.3916469354534104E+00
 0.9600000000000000E+04  0.0000000000000000E+00  0.0000000000000000E+00  0.0000000000000000E+00 -0.3916469354534104E+00
 0.9900000000000000E+04  0.0000000000000000E+00  0.0000000000000000E+00  0.0000000000000000E+00 -0.3916469354534104E+00
 0.1020000000000000E+05  0.0000000000000000E+00  0.0000000000000000E+00  0.0000000000000000E+00 -0.3916469354534104E+00
 0.1050000000000000E+05  0.0000000000000000E+00  0.0000000000000000E+00  0.0000000000000000E+00 -0.3916469354534104E+00
 0.1080000000000000E+05  0.0000000000000000E+00  0.0000000000000000E+00  0.0000000000000000E+00 -0.3916469354534104E+00
 0.1110000000000000E+05  0.0000000000000000E+00  0.0000000000000000E+00  0.0000000000000000E+00 -0.3916469354534104E+00
 0.1140000000000000E+05  0.0000000000000000E+00  0.0000000000000000E+00  0.0000000000000000E+00 -0.3916469354534104E+00
 0.1170000000000000E+05  0.0000000000000000E+00  0.0000000000000000E+00  0.0000000000000000E+00 -0.3916469354534104E+00
 0.1200000000000000E+05  0.0000000000000000E+00  0.0000000000000000E+00  0.0000000000000000E+00 -0.3916469354534104E+00
 0.1230000000000000E+05  0.0000000000000000E+00  0.0000000000000000E+00  0.0000000000000000E+00 -0.3916469354534104E+00
 0.1260000000000000E+05  0.0000000000000000E+00  0.0000000000000000E+00  0.0000000000000000E+00 -0.3916469354534104E+00
 0.1290000000000000E+05  0.0000000000000000E+00  0.0000000000000000E+00  0.0000000000000000E+00 -0.3916469354534104E+00
 0.1320000000000000E+05  0.0000000000000000E+00  0.0000000000000000E+00  0.0000000000000000E+00 -0.3916469354534104E+00
 0.1350000000000000E+05  0.0000000000000000E+00  0.0000000000000000E+00  0.0000000000000000E+00 -0.3916469354534104E+00
 0.1380000000000000E+05  0.0000000000000000E+00  0.0000000000000000E+00  0.0000000000000000E+00 -0.3916469354534104E+00
 0.1410000000000000E+05  0.0000000000000000E+00  0.0000000000000000E+00  0.0000000000000000E+00 -0.3916469354534104E+00
 0.1440000000000000E+05  0.0000000000000000E+00  0.0000000000000000E+00  0.0000000000000000E+00 -0.3916469354534104E+00
 0.1470000000000000E+05  0.0000000000000000E+00  0.0000000000000000E+00  0.0000000000000000E+00 -0.3916469354534104E+00
 0.1500000000000000E+05  0.0000000000000000E+00  0.0000000000000000E+00  0.0000000000000000E+00 -0.3916469354534104E+00
 0.1530000000000000E+05  0.0000000000000000E+00  0.0000000000000000E+00  0.0000000000000000E+00 -0.3916469354534104E+00
 0.1560000000000000E+05  0.0000000000000000E+00  0.0000000000000000E+00  0.0000000000000000E+00 -0.3916469354534104E+00
 0.1590000000000000E+05  0.0000000000000000E+00  0.0000000000000000E+00  0.0000000000000000E+00 -0.3916469354534104E+00
 0.1620000000000000E+05  0.0000000000000000E+00  0.0000000000000000E+00  0.0000000000000000E+00 -0.3916469354534104E+00
 0.1650000000000000E+05  0.0000000000000000E+00  0.0000000000000000E+00  0.0000000000000000E+00 -0.3916469354534104E+00
 0.1680000000000000E+05  0.0000000000000000E+00  0.0000000000000000E+00  0.0000000000000000E+00 -0.3916469354534104E+00
 0.1710000000000000E+05  0.0000000000000000E+00  0.0000000000000000E+00  0.0000000000000000E+00 -0.3916469354534104E+00
 0.1740000000000000E+05  0.0000000000000000E+00  0.0000000000000000E+00  0.0000000000000000E+00 -0.3916469354534104E+00
 0.1770000000000000E+05  0.0000000000000000E+00  0.0000000000000000E+00  0.0000000000000000E+00 -0.3916469354534104E+00
 0.1800000000000000E+05  0.0000000000000000E+00  0.0000000000000000E+00  0.0000000000000000E+00 -0.3916469354534104E+00
 0.1830000000000000E+05  0.0000000000000000E+00  0.0000000000000000E+00  0.0000000000000000E+00 -0.3916469354534104E+00
 0.1860000000000000E+05  0.0000000000000000E+00  0.0000000000000000E+00  0.0000000000000000E+00 -0.3916469354534104E+00
 0.1890000000000000E+05  0.0000000000000000E+00  0.0000000000000000E+00  0.0000000000000000E+00 -0.3916469354534104E+00
 0.1920000000000000E+05  0.0000000000000000E+00  0.0000000000000000E+00  0.0000000000000000E+00 -0.3916469354534104E+00
 0.1950000000000000E+05  0.0000000000000000E+00  0.0000000000000000E+00  0.0000000000000000E+00 -0.3916469354534104E+00
 0.1980000000000000E+05  0.0000000000000000E+00  0.0000000000000000E+00  0.0000000000000000E+00 -0.3916469354534104E+00
 0.2010000000000000E+05  0.0000000000000000E+00  0.0000000000000000E+00  0.0000000000000000E+00 -0.3916469354534104E+00
 0.2040000000000000E+05  0.0000000000000000E+00  0.0000000000000000E+00  0.0000000000000000E+00 -0.3916469354534104E+00
 0.2070000000000000E+05  0.0000000000000000E+00  0.0000000000000000E+00  0.0000000000000000E+00 -0.3916469354534104E+00
 0.2100000000000000E+05  0.0000000000000000E+00  0.0000000000000000E+00  0.0000000000000000E+00 -0.3916469354534104E+00
 0.2130000000000000E+05  0.0000000000000000E+00  0.0000000000000000E+00  0.0000000000000000E+00 -0.3916469354534104E+00
 0.2160000000000000E+05  0.0000000000000000E+00  0.0000000000000000E+00  0.0000000000000000E+00 -0.3916469354534104E+00
 0.2190000000000000E+05  0.0000000000000000E+00  0.0000000000000000E+00  0.0000000000000000E+00 -0.3916469354534104E+00
 0.2220000000000000E+05  0.0000000000000000E+00  0.0000000000000000E+00  0.0000000000000000E+00 -0.3916469354534104E+00
 0.2250000000000000E+05  0.0000000000000000E+00  0.0000000000000000E+00  0.0000000000000000E+00 -0.3916469354534104E+00
 0.2280000000000000E+05  0.0000000000000000E+00  0.0000000000000000E+00  0.0000000000000000E+00 -0.3916469354534104E+00
 0.2310000000000000E+05  0.0000000000000000E+00  0.0000000000000000E+00  0.0000000000000000E+00 -0.3916469354534104E+00
 0.2340000000000000E+05  0.0000000000000000E+00  0.0000000000000000E+00  0.0000000000000000E+00 -0.3916469354534104E+00
 0.2370000000000000E+05  0.0000000000000000E+00  0.0000000000000000E+00  0.0000000000000000E+00 -0.3916469354534104E+00
 0.2400000000000000E+05  0.0000000000000000E+00  0.0000000000000000E+00  0.0000000000000000E+00 -0.3916469354534104E+00
 0.2430000000000000E+05  0.0000000000000000E+00  0.0000000000000000E+00  0.0000000000000000E+00 -0.3916469354534104E+00
 0.2460000000000000E+05  0.0000000000000000E+00  0.0000000000000000E+00  0.0000000000000000E+00 -0.3916469354534104E+00
 0.2490000000000000E+05  0.0000000000000000E+00  0.0000000000000000E+00  0.0000000000000000E+00 -0.3916469354534104E+00
 0.2520000000000000E+05  0.0000000000000000E+00  0.0000000000000000E+00  0.0000000000000000E+00 -0.3916469354534104E+00
 0.2550000000000000E+05  0.0000000000000000E+00  0.0000000000000000E+00  0.0000000000000000E+00 -0.3916469354534104E+00
 0.2580000000000000E+05  0.0000000000000000E+00  0.0000000000000000E+00  0.0000000000000000E+00 -0.3916469354534104E+00
 0.2610000000000000E+05  0.0000000000000000E+00  0.0000000000000000E+00  0.0000000000000000E+00 -0.3916469354534104E+00
 0.2640000000000000E+05  0.0000000000000000E+00  0.0000000000000000E+00  0.0000000000000000E+00 -0.3916469354534104E+00
 0.2670000000000000E+05  0.0000000000000000E+00  0.0000000000000000E+00  0.0000000000000000E+00 -0.3916469354534104E+00
 0.2700000000000000E+05  0.0000000000000000E+00  0.0000000000000000E+00  0.0000000000000000E+00 -0.3916469354534104E+00
 0.2730000000000000E+05  0.0000000000000000E+00  0.0000000000000000E+00  0.0000000000000000E+00 -0.3916469354534104E+00
 0.2760000000000000E+05  0.0000000000000000E+00  0.0000000000000000E+00  0.0000000000000000E+00 -0.3916469354534104E+00
 0.2790000000000000E+05  0.0000000000000000E+00  0.0000000000000000E+00  0.0000000000000000E+00 -0.3916469354534104E+00
 0.2820000000000000E+05  0.0000000000000000E+00  0.0000000000000000E+00  0.0000000000000000E+00 -0.3916469354534104E+00
 0.2850000000000000E+05  0.0000000000000000E+00  0.0000000000000000E+00  0.0000000000000000E+00 -0.3916469354534104E+00
 0.2880000000000000E+05  0.0000000000000000E+00  0.0000000000000000E+00  0.0000000000000000E+00 -0.3916469354534104E+00
 0.2910000000000000E+05  0.0000000000000000E+00  0.0000000000000000E+00  0.0000000000000000E+00 -0.3916469354534104E+00
 0.2940000000000000E+05  0.0000000000000000E+00  0.0000000000000000E+00  0.0000000000000000E+00 -0.3916469354534104E+00
 0.2970000000000000E+05  0.0000000000000000E+00  0.0000000000000000E+00  0.0000000000000000E+00 -0.3916469354534104E+00
 0.3000000000000000E+05  0.0000000000000000E+00  0.0000000000000000E+00  0.0000000000000000E+00 -0.3916469354534104E+00
 0.3030000000000000E+05  0.0000000000000000E+00  0.0000000000000000E+00  0.0000000000000000E+00 -0.3916469354534104E+00
 0.3060000000000000E+05  0.0000000000000000E+00  0.0000000000000000E+00  0.0000000000000000E+00 -0.3916469354534104E+00
 0.3090000000000000E+05  0.0000000000000000E+00  0.0000000000000000E+00  0.0000000000000000E+00 -0.3916469354534104E+00
 0.3120000000000000E+05  0.0000000000000000E+00  0.0000000000000000E+00  0.0000000000000000E+00 -0.3916469354534104E+00
 0.3150000000000000E+05  0.0000000000000000E+00  0.0000000000000000E+00  0.0000000000000000E+00 -0.3916469354534104E+00
 0.3180000000000000E+05  0.0000000000000000E+00  0.0000000000000000E+00  0.0000000000000000E+00 -0.3916469354534104E+00
 0.3210000000000000E+05  0.0000000000000000E+00  0.0000000000000000E+00  0.0000000000000000E+00 -0.3916469354534104E+00
 0.3240000000000000E+05  0.0000000000000000E+00  0.0000000000000000E+00  0.0000000000000000E+00 -0.3916469354534104E+00
 0.3270000000000000E+05  0.0000000000000000E+00  0.0000000000000000E+00  0.0000000000000000E+00 -0.3916469354534104E+00
 0.3300000000000000E+05  0.0000000000000000E+00  0.0000000000000000E+00  0.0000000000000000E+00 -0.3916469354534104E+00
 0.3330000000000000E+05  0.0000000000000000E+00  0.0000000000000000E+00  0.0000000000000000E+00 -0.3916469354534104E+00
 0.3360000000000000E+05  0.0000000000000000E+00  0.0000000000000000E+00  0.0000000000000000E+00 -0.3916469354534104E+00
 0.3390000000000000E+05  0.0000000000000000E+00  0.0000000000000000E+00  0.0000000000000000E+00 -0.3916469354534104E+00
 0.3420000000000000E+05  0.0000000000000000E+00  0.0000000000000000E+00  0.0000000000000000E+00 -0.3916469354534104E+00
 0.3450000000000000E+05  0.0000000000000000E+00  0.0000000000000000E+00  0.0000000000000000E+00 -0.3916469354534104E+00
 0.3480000000000000E+05  0.0000000000000000E+00  0.0000000000000000E+00  0.0000000000000000E+00 -0.3916469354534104E+00
 0.3510000000000000E+05  0.0000000000000000E+00  0.0000000000000000E+00  0.0000000000000000E+00 -0.3916469354534104E+00
 0.3540000000000000E+05  0.0000000000000000E+00  0.0000000000000000E+00  0.0000000000000000E+00 -0.3916469354534104E+00
 0.3570000000000000E+05  0.0000000000000000E+00  0.0000000000000000E+00  0.0000000000000000E+00 -0.3916469354534104E+00
 0.3600000000000000E+05  0.0000000000000000E+00  0.0000000000000000E+00  0.0000000000000000E+00 -0.3916469354534104E+00
 0.3630000000000000E+05  0.0000000000000000E+00  0.0000000000000000E+00  0.0000000000000000E+00 -0.3916469354534104E+00
 0.3660000000000000E+05  0.0000000000000000E+00  0.0000000000000000E+00  0.0000000000000000E+00 -0.3916469354534104E+00
 0.3690000000000000E+05  0.0000000000000000E+00  0.0000000000000000E+00  0.0000000000000000E+00 -0.3916469354534104E+00
 0.3720000000000000E+05  0.0000000000000000E+00  0.0000000000000000E+00  0.0000000000000000E+00 -0.3916469354534104E+00
 0.3750000000000000E+05  0.0000000000000000E+00  0.0000000000000000E+00  0.0000000000000000E+00 -0.3916469354534104E+00
 0.3780000000000000E+05  0.0000000000000000E+00  0.0000000000000000E+00  0.0000000000000000E+00 -0.3916469354534104E+00
 0.3810000000000000E+05  0.0000000000000000E+00  0.0000000000000000E+00  0.0000000000000000E+00 -0.3916469354534104E+00
 0.3840000000000000E+05  0.0000000000000000E+00  0.0000000000000000E+00  0.0000000000000000E+00 -0.3916469354534104E+00
 0.3870000000000000E+05  0.0000000000000000E+00  0.0000000000000000E+00  0.0000000000000000E+00 -0.3916469354534104E+00
 0.3900000000000000E+05  0.0000000000000000E+00  0.0000000000000000E+00  0.0000000000000000E+00 -0.3916469354534104E+00
 0.3930000000000000E+05  0.0000000000000000E+00  0.0000000000000000E+00  0.0000000000000000E+00 -0.3916469354534104E+00
 0.3960000000000000E+05  0.0000000000000000E+00  0.0000000000000000E+00  0.0000000000000000E+00 -0.3916469354534104E+00
 0.3990000000000000E+05  0.0000000000000000E+00  0.0000000000000000E+00  0.0000000000000000E+00 -0.3916469354534104E+00
 0.4020000000000000E+05  0.0000000000000000E+00  0.0000000000000000E+00  0.0000000000000000E+00 -0.3916469354534104E+00
 0.4050000000000000E+05  0.0000000000000000E+00  0.0000000000000000E+00  0.0000000000000000E+00 -0.3916469354534104E+00
 0.4080000000000000E+05  0.0000000000000000E+00  0.0000000000000000E+00  0.0000000000000000E+00 -0.3916469354534104E+00
 0.4110000000000000E+05  0.0000000000000000E+00  0.0000000000000000E+00  0.0000000000000000E+00 -0.3916469354534104E+00
 0.4140000000000000E+05  0.0000000000000000E+00  0.0000000000000000E+00  0.0000000000000000E+00 -0.3916469354534104E+00
 0.4170000000000000E+05  0.0000000000000000E+00  0.0000000000000000E+00  0.0000000000000000E+00 -0.3916469354534104E+00
 0.4200000000000000E+05  0.0000000000000000E+00  0.0000000000000000E+00  0.0000000000000000E+00 -0.3916469354534104E+00
 0.4230000000000000E+05  0.0000000000000000E+00  0.0000000000000000E+00  0.0000000000000000E+00 -0.3916469354534104E+00
 0.4260000000000000E+05  0.0000000000000000E+00  0.0000000000000000E+00  0.0000000000000000E+00 -0.3916469354534104E+00
 0.4290000000000000E+05  0.0000000000000000E+00  0.0000000000000000E+00  0.0000000000000000E+00 -0.3916469354534104E+00
 0.4320000000000000E+05  0.0000000000000000E+00  0.0000000000000000E+00  0.0000000000000000E+00 -0.3916469354534104E+00
